ITEM: TIMESTEP
4997000
ITEM: NUMBER OF ATOMS
77664
ITEM: BOX BOUNDS pp pp pp
-86.1 86.1
-85.2169 85.2169
-19 200
ITEM: ATOMS id type x y z 
10 1 -84.87 -84.5068 -15.3 
11 1 -84.87 -84.5068 -8.5 
19 1 -83.64 -83.7966 -18.7 
20 1 -83.64 -83.7966 -11.9 
22 1 -82.41 -84.5068 -15.3 
23 1 -82.41 -84.5068 -8.5 
25 1 -82.41 -83.0865 -18.7 
26 1 -82.41 -83.0865 -11.9 
28 1 -82.41 -83.0865 -15.3 
29 1 -82.41 -83.0865 -8.5 
31 1 -82.41 -81.6662 -18.7 
32 1 -82.41 -81.6662 -11.9 
37 1 -84.87 -83.0865 -18.7 
38 1 -84.87 -83.0865 -11.9 
40 1 -84.87 -83.0865 -15.3 
41 1 -84.87 -83.0865 -8.5 
43 1 -84.87 -81.6662 -18.7 
44 1 -84.87 -81.6662 -11.9 
46 1 -83.64 -82.3763 -15.3 
47 1 -83.64 -82.3763 -8.5 
55 1 -81.18 -83.7966 -18.7 
56 1 -81.18 -83.7966 -11.9 
58 1 -79.95 -84.5068 -15.3 
59 1 -79.95 -84.5068 -8.5 
67 1 -78.72 -83.7966 -18.7 
68 1 -78.72 -83.7966 -11.9 
70 1 -77.49 -84.5068 -15.3 
71 1 -77.49 -84.5068 -8.5 
73 1 -77.49 -83.0865 -18.7 
74 1 -77.49 -83.0865 -11.9 
76 1 -77.49 -83.0865 -15.3 
77 1 -77.49 -83.0865 -8.5 
79 1 -77.49 -81.6662 -18.7 
80 1 -77.49 -81.6662 -11.9 
82 1 -81.18 -82.3763 -15.3 
83 1 -81.18 -82.3763 -8.5 
85 1 -79.95 -83.0865 -18.7 
86 1 -79.95 -83.0865 -11.9 
88 1 -79.95 -83.0865 -15.3 
89 1 -79.95 -83.0865 -8.5 
91 1 -79.95 -81.6662 -18.7 
92 1 -79.95 -81.6662 -11.9 
94 1 -78.72 -82.3763 -15.3 
95 1 -78.72 -82.3763 -8.5 
103 1 -76.26 -83.7966 -18.7 
104 1 -76.26 -83.7966 -11.9 
106 1 -75.03 -84.5068 -15.3 
107 1 -75.03 -84.5068 -8.5 
115 1 -73.8 -83.7966 -18.7 
116 1 -73.8 -83.7966 -11.9 
118 1 -72.57 -84.5068 -15.3 
119 1 -72.57 -84.5068 -8.5 
121 1 -72.57 -83.0865 -18.7 
122 1 -72.57 -83.0865 -11.9 
124 1 -72.57 -83.0865 -15.3 
125 1 -72.57 -83.0865 -8.5 
127 1 -72.57 -81.6662 -18.7 
128 1 -72.57 -81.6662 -11.9 
130 1 -76.26 -82.3763 -15.3 
131 1 -76.26 -82.3763 -8.5 
133 1 -75.03 -83.0865 -18.7 
134 1 -75.03 -83.0865 -11.9 
136 1 -75.03 -83.0865 -15.3 
137 1 -75.03 -83.0865 -8.5 
139 1 -75.03 -81.6662 -18.7 
140 1 -75.03 -81.6662 -11.9 
142 1 -73.8 -82.3763 -15.3 
143 1 -73.8 -82.3763 -8.5 
1690 1 -84.87 -80.2459 -15.3 
1691 1 -84.87 -80.2459 -8.5 
1693 1 -83.64 -80.9561 -18.7 
1694 1 -83.64 -80.9561 -11.9 
1696 1 -83.64 -80.9561 -15.3 
1697 1 -83.64 -80.9561 -8.5 
1699 1 -83.64 -79.5358 -18.7 
1700 1 -83.64 -79.5358 -11.9 
1702 1 -82.41 -80.2459 -15.3 
1703 1 -82.41 -80.2459 -8.5 
1705 1 -82.41 -78.8256 -18.7 
1706 1 -82.41 -78.8256 -11.9 
1708 1 -82.41 -78.8256 -15.3 
1709 1 -82.41 -78.8256 -8.5 
1711 1 -82.41 -77.4054 -18.7 
1712 1 -82.41 -77.4054 -11.9 
1717 1 -84.87 -78.8256 -18.7 
1718 1 -84.87 -78.8256 -11.9 
1720 1 -84.87 -78.8256 -15.3 
1721 1 -84.87 -78.8256 -8.5 
1723 1 -84.87 -77.4054 -18.7 
1724 1 -84.87 -77.4054 -11.9 
1726 1 -83.64 -78.1155 -15.3 
1727 1 -83.64 -78.1155 -8.5 
1729 1 -81.18 -80.9561 -18.7 
1730 1 -81.18 -80.9561 -11.9 
1732 1 -81.18 -80.9561 -15.3 
1733 1 -81.18 -80.9561 -8.5 
1735 1 -81.18 -79.5358 -18.7 
1736 1 -81.18 -79.5358 -11.9 
1738 1 -79.95 -80.2459 -15.3 
1739 1 -79.95 -80.2459 -8.5 
1741 1 -78.72 -80.9561 -18.7 
1742 1 -78.72 -80.9561 -11.9 
1744 1 -78.72 -80.9561 -15.3 
1745 1 -78.72 -80.9561 -8.5 
1747 1 -78.72 -79.5358 -18.7 
1748 1 -78.72 -79.5358 -11.9 
1750 1 -77.49 -80.2459 -15.3 
1751 1 -77.49 -80.2459 -8.5 
1753 1 -77.49 -78.8256 -18.7 
1754 1 -77.49 -78.8256 -11.9 
1756 1 -77.49 -78.8256 -15.3 
1757 1 -77.49 -78.8256 -8.5 
1759 1 -77.49 -77.4054 -18.7 
1760 1 -77.49 -77.4054 -11.9 
1762 1 -81.18 -78.1155 -15.3 
1763 1 -81.18 -78.1155 -8.5 
1765 1 -79.95 -78.8256 -18.7 
1766 1 -79.95 -78.8256 -11.9 
1768 1 -79.95 -78.8256 -15.3 
1769 1 -79.95 -78.8256 -8.5 
1771 1 -79.95 -77.4054 -18.7 
1772 1 -79.95 -77.4054 -11.9 
1774 1 -78.72 -78.1155 -15.3 
1775 1 -78.72 -78.1155 -8.5 
1777 1 -76.26 -80.9561 -18.7 
1778 1 -76.26 -80.9561 -11.9 
1780 1 -76.26 -80.9561 -15.3 
1781 1 -76.26 -80.9561 -8.5 
1783 1 -76.26 -79.5358 -18.7 
1784 1 -76.26 -79.5358 -11.9 
1786 1 -75.03 -80.2459 -15.3 
1787 1 -75.03 -80.2459 -8.5 
1789 1 -73.8 -80.9561 -18.7 
1790 1 -73.8 -80.9561 -11.9 
1792 1 -73.8 -80.9561 -15.3 
1793 1 -73.8 -80.9561 -8.5 
1795 1 -73.8 -79.5358 -18.7 
1796 1 -73.8 -79.5358 -11.9 
1798 1 -72.57 -80.2459 -15.3 
1799 1 -72.57 -80.2459 -8.5 
1801 1 -72.57 -78.8256 -18.7 
1802 1 -72.57 -78.8256 -11.9 
1804 1 -72.57 -78.8256 -15.3 
1805 1 -72.57 -78.8256 -8.5 
1807 1 -72.57 -77.4054 -18.7 
1808 1 -72.57 -77.4054 -11.9 
1810 1 -76.26 -78.1155 -15.3 
1811 1 -76.26 -78.1155 -8.5 
1813 1 -75.03 -78.8256 -18.7 
1814 1 -75.03 -78.8256 -11.9 
1816 1 -75.03 -78.8256 -15.3 
1817 1 -75.03 -78.8256 -8.5 
1819 1 -75.03 -77.4054 -18.7 
1820 1 -75.03 -77.4054 -11.9 
1822 1 -73.8 -78.1155 -15.3 
1823 1 -73.8 -78.1155 -8.5 
3370 1 -84.87 -75.9851 -15.3 
3371 1 -84.87 -75.9851 -8.5 
3373 1 -83.64 -76.6952 -18.7 
3374 1 -83.64 -76.6952 -11.9 
3376 1 -83.64 -76.6952 -15.3 
3377 1 -83.64 -76.6952 -8.5 
3379 1 -83.64 -75.2749 -18.7 
3380 1 -83.64 -75.2749 -11.9 
3382 1 -82.41 -75.9851 -15.3 
3383 1 -82.41 -75.9851 -8.5 
3385 1 -82.41 -74.5648 -18.7 
3386 1 -82.41 -74.5648 -11.9 
3388 1 -82.41 -74.5648 -15.3 
3389 1 -82.41 -74.5648 -8.5 
3397 1 -84.87 -74.5648 -18.7 
3398 1 -84.87 -74.5648 -11.9 
3400 1 -84.87 -74.5648 -15.3 
3401 1 -84.87 -74.5648 -8.5 
3406 1 -83.64 -73.8547 -15.3 
3407 1 -83.64 -73.8547 -8.5 
3409 1 -81.18 -76.6952 -18.7 
3410 1 -81.18 -76.6952 -11.9 
3412 1 -81.18 -76.6952 -15.3 
3413 1 -81.18 -76.6952 -8.5 
3415 1 -81.18 -75.2749 -18.7 
3416 1 -81.18 -75.2749 -11.9 
3418 1 -79.95 -75.9851 -15.3 
3419 1 -79.95 -75.9851 -8.5 
3421 1 -78.72 -76.6952 -18.7 
3422 1 -78.72 -76.6952 -11.9 
3424 1 -78.72 -76.6952 -15.3 
3425 1 -78.72 -76.6952 -8.5 
3427 1 -78.72 -75.2749 -18.7 
3428 1 -78.72 -75.2749 -11.9 
3430 1 -77.49 -75.9851 -15.3 
3431 1 -77.49 -75.9851 -8.5 
3433 1 -77.49 -74.5648 -18.7 
3434 1 -77.49 -74.5648 -11.9 
3436 1 -77.49 -74.5648 -15.3 
3437 1 -77.49 -74.5648 -8.5 
3442 1 -81.18 -73.8547 -15.3 
3443 1 -81.18 -73.8547 -8.5 
3445 1 -79.95 -74.5648 -18.7 
3446 1 -79.95 -74.5648 -11.9 
3448 1 -79.95 -74.5648 -15.3 
3449 1 -79.95 -74.5648 -8.5 
3454 1 -78.72 -73.8547 -15.3 
3455 1 -78.72 -73.8547 -8.5 
3457 1 -76.26 -76.6952 -18.7 
3458 1 -76.26 -76.6952 -11.9 
3460 1 -76.26 -76.6952 -15.3 
3461 1 -76.26 -76.6952 -8.5 
3463 1 -76.26 -75.2749 -18.7 
3464 1 -76.26 -75.2749 -11.9 
3466 1 -75.03 -75.9851 -15.3 
3467 1 -75.03 -75.9851 -8.5 
3469 1 -73.8 -76.6952 -18.7 
3470 1 -73.8 -76.6952 -11.9 
3472 1 -73.8 -76.6952 -15.3 
3473 1 -73.8 -76.6952 -8.5 
3475 1 -73.8 -75.2749 -18.7 
3476 1 -73.8 -75.2749 -11.9 
3478 1 -72.57 -75.9851 -15.3 
3479 1 -72.57 -75.9851 -8.5 
3481 1 -72.57 -74.5648 -18.7 
3482 1 -72.57 -74.5648 -11.9 
3484 1 -72.57 -74.5648 -15.3 
3485 1 -72.57 -74.5648 -8.5 
3490 1 -76.26 -73.8547 -15.3 
3491 1 -76.26 -73.8547 -8.5 
3493 1 -75.03 -74.5648 -18.7 
3494 1 -75.03 -74.5648 -11.9 
3496 1 -75.03 -74.5648 -15.3 
3497 1 -75.03 -74.5648 -8.5 
3502 1 -73.8 -73.8547 -15.3 
3503 1 -73.8 -73.8547 -8.5 
151 1 -71.34 -83.7966 -18.7 
152 1 -71.34 -83.7966 -11.9 
154 1 -70.11 -84.5068 -15.3 
155 1 -70.11 -84.5068 -8.5 
163 1 -68.88 -83.7966 -18.7 
164 1 -68.88 -83.7966 -11.9 
166 1 -67.65 -84.5068 -15.3 
167 1 -67.65 -84.5068 -8.5 
169 1 -67.65 -83.0865 -18.7 
170 1 -67.65 -83.0865 -11.9 
172 1 -67.65 -83.0865 -15.3 
173 1 -67.65 -83.0865 -8.5 
175 1 -67.65 -81.6662 -18.7 
176 1 -67.65 -81.6662 -11.9 
178 1 -71.34 -82.3763 -15.3 
179 1 -71.34 -82.3763 -8.5 
181 1 -70.11 -83.0865 -18.7 
182 1 -70.11 -83.0865 -11.9 
184 1 -70.11 -83.0865 -15.3 
185 1 -70.11 -83.0865 -8.5 
187 1 -70.11 -81.6662 -18.7 
188 1 -70.11 -81.6662 -11.9 
190 1 -68.88 -82.3763 -15.3 
191 1 -68.88 -82.3763 -8.5 
199 1 -66.42 -83.7966 -18.7 
200 1 -66.42 -83.7966 -11.9 
202 1 -65.19 -84.5068 -15.3 
203 1 -65.19 -84.5068 -8.5 
211 1 -63.96 -83.7966 -18.7 
212 1 -63.96 -83.7966 -11.9 
214 1 -62.73 -84.5068 -15.3 
215 1 -62.73 -84.5068 -8.5 
217 1 -62.73 -83.0865 -18.7 
218 1 -62.73 -83.0865 -11.9 
220 1 -62.73 -83.0865 -15.3 
221 1 -62.73 -83.0865 -8.5 
223 1 -62.73 -81.6662 -18.7 
224 1 -62.73 -81.6662 -11.9 
226 1 -66.42 -82.3763 -15.3 
227 1 -66.42 -82.3763 -8.5 
229 1 -65.19 -83.0865 -18.7 
230 1 -65.19 -83.0865 -11.9 
232 1 -65.19 -83.0865 -15.3 
233 1 -65.19 -83.0865 -8.5 
235 1 -65.19 -81.6662 -18.7 
236 1 -65.19 -81.6662 -11.9 
238 1 -63.96 -82.3763 -15.3 
239 1 -63.96 -82.3763 -8.5 
247 1 -61.5 -83.7966 -18.7 
248 1 -61.5 -83.7966 -11.9 
250 1 -60.27 -84.5068 -15.3 
251 1 -60.27 -84.5068 -8.5 
259 1 -59.04 -83.7966 -18.7 
260 1 -59.04 -83.7966 -11.9 
262 1 -57.81 -84.5068 -15.3 
263 1 -57.81 -84.5068 -8.5 
265 1 -57.81 -83.0865 -18.7 
266 1 -57.81 -83.0865 -11.9 
268 1 -57.81 -83.0865 -15.3 
269 1 -57.81 -83.0865 -8.5 
271 1 -57.81 -81.6662 -18.7 
272 1 -57.81 -81.6662 -11.9 
274 1 -61.5 -82.3763 -15.3 
275 1 -61.5 -82.3763 -8.5 
277 1 -60.27 -83.0865 -18.7 
278 1 -60.27 -83.0865 -11.9 
280 1 -60.27 -83.0865 -15.3 
281 1 -60.27 -83.0865 -8.5 
283 1 -60.27 -81.6662 -18.7 
284 1 -60.27 -81.6662 -11.9 
286 1 -59.04 -82.3763 -15.3 
287 1 -59.04 -82.3763 -8.5 
1825 1 -71.34 -80.9561 -18.7 
1826 1 -71.34 -80.9561 -11.9 
1828 1 -71.34 -80.9561 -15.3 
1829 1 -71.34 -80.9561 -8.5 
1831 1 -71.34 -79.5358 -18.7 
1832 1 -71.34 -79.5358 -11.9 
1834 1 -70.11 -80.2459 -15.3 
1835 1 -70.11 -80.2459 -8.5 
1837 1 -68.88 -80.9561 -18.7 
1838 1 -68.88 -80.9561 -11.9 
1840 1 -68.88 -80.9561 -15.3 
1841 1 -68.88 -80.9561 -8.5 
1843 1 -68.88 -79.5358 -18.7 
1844 1 -68.88 -79.5358 -11.9 
1846 1 -67.65 -80.2459 -15.3 
1847 1 -67.65 -80.2459 -8.5 
1849 1 -67.65 -78.8256 -18.7 
1850 1 -67.65 -78.8256 -11.9 
1852 1 -67.65 -78.8256 -15.3 
1853 1 -67.65 -78.8256 -8.5 
1855 1 -67.65 -77.4054 -18.7 
1856 1 -67.65 -77.4054 -11.9 
1858 1 -71.34 -78.1155 -15.3 
1859 1 -71.34 -78.1155 -8.5 
1861 1 -70.11 -78.8256 -18.7 
1862 1 -70.11 -78.8256 -11.9 
1864 1 -70.11 -78.8256 -15.3 
1865 1 -70.11 -78.8256 -8.5 
1867 1 -70.11 -77.4054 -18.7 
1868 1 -70.11 -77.4054 -11.9 
1870 1 -68.88 -78.1155 -15.3 
1871 1 -68.88 -78.1155 -8.5 
1873 1 -66.42 -80.9561 -18.7 
1874 1 -66.42 -80.9561 -11.9 
1876 1 -66.42 -80.9561 -15.3 
1877 1 -66.42 -80.9561 -8.5 
1879 1 -66.42 -79.5358 -18.7 
1880 1 -66.42 -79.5358 -11.9 
1882 1 -65.19 -80.2459 -15.3 
1883 1 -65.19 -80.2459 -8.5 
1885 1 -63.96 -80.9561 -18.7 
1886 1 -63.96 -80.9561 -11.9 
1888 1 -63.96 -80.9561 -15.3 
1889 1 -63.96 -80.9561 -8.5 
1891 1 -63.96 -79.5358 -18.7 
1892 1 -63.96 -79.5358 -11.9 
1894 1 -62.73 -80.2459 -15.3 
1895 1 -62.73 -80.2459 -8.5 
1897 1 -62.73 -78.8256 -18.7 
1898 1 -62.73 -78.8256 -11.9 
1900 1 -62.73 -78.8256 -15.3 
1901 1 -62.73 -78.8256 -8.5 
1903 1 -62.73 -77.4054 -18.7 
1904 1 -62.73 -77.4054 -11.9 
1906 1 -66.42 -78.1155 -15.3 
1907 1 -66.42 -78.1155 -8.5 
1909 1 -65.19 -78.8256 -18.7 
1910 1 -65.19 -78.8256 -11.9 
1912 1 -65.19 -78.8256 -15.3 
1913 1 -65.19 -78.8256 -8.5 
1915 1 -65.19 -77.4054 -18.7 
1916 1 -65.19 -77.4054 -11.9 
1918 1 -63.96 -78.1155 -15.3 
1919 1 -63.96 -78.1155 -8.5 
1921 1 -61.5 -80.9561 -18.7 
1922 1 -61.5 -80.9561 -11.9 
1924 1 -61.5 -80.9561 -15.3 
1925 1 -61.5 -80.9561 -8.5 
1927 1 -61.5 -79.5358 -18.7 
1928 1 -61.5 -79.5358 -11.9 
1930 1 -60.27 -80.2459 -15.3 
1931 1 -60.27 -80.2459 -8.5 
1933 1 -59.04 -80.9561 -18.7 
1934 1 -59.04 -80.9561 -11.9 
1936 1 -59.04 -80.9561 -15.3 
1937 1 -59.04 -80.9561 -8.5 
1939 1 -59.04 -79.5358 -18.7 
1940 1 -59.04 -79.5358 -11.9 
1942 1 -57.81 -80.2459 -15.3 
1943 1 -57.81 -80.2459 -8.5 
1945 1 -57.81 -78.8256 -18.7 
1946 1 -57.81 -78.8256 -11.9 
1948 1 -57.81 -78.8256 -15.3 
1949 1 -57.81 -78.8256 -8.5 
1951 1 -57.81 -77.4054 -18.7 
1952 1 -57.81 -77.4054 -11.9 
1954 1 -61.5 -78.1155 -15.3 
1955 1 -61.5 -78.1155 -8.5 
1957 1 -60.27 -78.8256 -18.7 
1958 1 -60.27 -78.8256 -11.9 
1960 1 -60.27 -78.8256 -15.3 
1961 1 -60.27 -78.8256 -8.5 
1963 1 -60.27 -77.4054 -18.7 
1964 1 -60.27 -77.4054 -11.9 
1966 1 -59.04 -78.1155 -15.3 
1967 1 -59.04 -78.1155 -8.5 
3505 1 -71.34 -76.6952 -18.7 
3506 1 -71.34 -76.6952 -11.9 
3508 1 -71.34 -76.6952 -15.3 
3509 1 -71.34 -76.6952 -8.5 
3511 1 -71.34 -75.2749 -18.7 
3512 1 -71.34 -75.2749 -11.9 
3514 1 -70.11 -75.9851 -15.3 
3515 1 -70.11 -75.9851 -8.5 
3517 1 -68.88 -76.6952 -18.7 
3518 1 -68.88 -76.6952 -11.9 
3520 1 -68.88 -76.6952 -15.3 
3521 1 -68.88 -76.6952 -8.5 
3523 1 -68.88 -75.2749 -18.7 
3524 1 -68.88 -75.2749 -11.9 
3526 1 -67.65 -75.9851 -15.3 
3527 1 -67.65 -75.9851 -8.5 
3529 1 -67.65 -74.5648 -18.7 
3530 1 -67.65 -74.5648 -11.9 
3532 1 -67.65 -74.5648 -15.3 
3533 1 -67.65 -74.5648 -8.5 
3538 1 -71.34 -73.8547 -15.3 
3539 1 -71.34 -73.8547 -8.5 
3541 1 -70.11 -74.5648 -18.7 
3542 1 -70.11 -74.5648 -11.9 
3544 1 -70.11 -74.5648 -15.3 
3545 1 -70.11 -74.5648 -8.5 
3550 1 -68.88 -73.8547 -15.3 
3551 1 -68.88 -73.8547 -8.5 
3553 1 -66.42 -76.6952 -18.7 
3554 1 -66.42 -76.6952 -11.9 
3556 1 -66.42 -76.6952 -15.3 
3557 1 -66.42 -76.6952 -8.5 
3559 1 -66.42 -75.2749 -18.7 
3560 1 -66.42 -75.2749 -11.9 
3562 1 -65.19 -75.9851 -15.3 
3563 1 -65.19 -75.9851 -8.5 
3565 1 -63.96 -76.6952 -18.7 
3566 1 -63.96 -76.6952 -11.9 
3568 1 -63.96 -76.6952 -15.3 
3569 1 -63.96 -76.6952 -8.5 
3571 1 -63.96 -75.2749 -18.7 
3572 1 -63.96 -75.2749 -11.9 
3574 1 -62.73 -75.9851 -15.3 
3575 1 -62.73 -75.9851 -8.5 
3577 1 -62.73 -74.5648 -18.7 
3578 1 -62.73 -74.5648 -11.9 
3580 1 -62.73 -74.5648 -15.3 
3581 1 -62.73 -74.5648 -8.5 
3586 1 -66.42 -73.8547 -15.3 
3587 1 -66.42 -73.8547 -8.5 
3589 1 -65.19 -74.5648 -18.7 
3590 1 -65.19 -74.5648 -11.9 
3592 1 -65.19 -74.5648 -15.3 
3593 1 -65.19 -74.5648 -8.5 
3598 1 -63.96 -73.8547 -15.3 
3599 1 -63.96 -73.8547 -8.5 
3601 1 -61.5 -76.6952 -18.7 
3602 1 -61.5 -76.6952 -11.9 
3604 1 -61.5 -76.6952 -15.3 
3605 1 -61.5 -76.6952 -8.5 
3607 1 -61.5 -75.2749 -18.7 
3608 1 -61.5 -75.2749 -11.9 
3610 1 -60.27 -75.9851 -15.3 
3611 1 -60.27 -75.9851 -8.5 
3613 1 -59.04 -76.6952 -18.7 
3614 1 -59.04 -76.6952 -11.9 
3616 1 -59.04 -76.6952 -15.3 
3617 1 -59.04 -76.6952 -8.5 
3619 1 -59.04 -75.2749 -18.7 
3620 1 -59.04 -75.2749 -11.9 
3622 1 -57.81 -75.9851 -15.3 
3623 1 -57.81 -75.9851 -8.5 
3625 1 -57.81 -74.5648 -18.7 
3626 1 -57.81 -74.5648 -11.9 
3628 1 -57.81 -74.5648 -15.3 
3629 1 -57.81 -74.5648 -8.5 
3634 1 -61.5 -73.8547 -15.3 
3635 1 -61.5 -73.8547 -8.5 
3637 1 -60.27 -74.5648 -18.7 
3638 1 -60.27 -74.5648 -11.9 
3640 1 -60.27 -74.5648 -15.3 
3641 1 -60.27 -74.5648 -8.5 
3646 1 -59.04 -73.8547 -15.3 
3647 1 -59.04 -73.8547 -8.5 
295 1 -56.58 -83.7966 -18.7 
296 1 -56.58 -83.7966 -11.9 
298 1 -55.35 -84.5068 -15.3 
299 1 -55.35 -84.5068 -8.5 
307 1 -54.12 -83.7966 -18.7 
308 1 -54.12 -83.7966 -11.9 
310 1 -52.89 -84.5068 -15.3 
311 1 -52.89 -84.5068 -8.5 
313 1 -52.89 -83.0865 -18.7 
314 1 -52.89 -83.0865 -11.9 
316 1 -52.89 -83.0865 -15.3 
317 1 -52.89 -83.0865 -8.5 
319 1 -52.89 -81.6662 -18.7 
320 1 -52.89 -81.6662 -11.9 
322 1 -56.58 -82.3763 -15.3 
323 1 -56.58 -82.3763 -8.5 
325 1 -55.35 -83.0865 -18.7 
326 1 -55.35 -83.0865 -11.9 
328 1 -55.35 -83.0865 -15.3 
329 1 -55.35 -83.0865 -8.5 
331 1 -55.35 -81.6662 -18.7 
332 1 -55.35 -81.6662 -11.9 
334 1 -54.12 -82.3763 -15.3 
335 1 -54.12 -82.3763 -8.5 
343 1 -51.66 -83.7966 -18.7 
344 1 -51.66 -83.7966 -11.9 
346 1 -50.43 -84.5068 -15.3 
347 1 -50.43 -84.5068 -8.5 
355 1 -49.2 -83.7966 -18.7 
356 1 -49.2 -83.7966 -11.9 
358 1 -47.97 -84.5068 -15.3 
359 1 -47.97 -84.5068 -8.5 
361 1 -47.97 -83.0865 -18.7 
362 1 -47.97 -83.0865 -11.9 
364 1 -47.97 -83.0865 -15.3 
365 1 -47.97 -83.0865 -8.5 
367 1 -47.97 -81.6662 -18.7 
368 1 -47.97 -81.6662 -11.9 
370 1 -51.66 -82.3763 -15.3 
371 1 -51.66 -82.3763 -8.5 
373 1 -50.43 -83.0865 -18.7 
374 1 -50.43 -83.0865 -11.9 
376 1 -50.43 -83.0865 -15.3 
377 1 -50.43 -83.0865 -8.5 
379 1 -50.43 -81.6662 -18.7 
380 1 -50.43 -81.6662 -11.9 
382 1 -49.2 -82.3763 -15.3 
383 1 -49.2 -82.3763 -8.5 
391 1 -46.74 -83.7966 -18.7 
392 1 -46.74 -83.7966 -11.9 
394 1 -45.51 -84.5068 -15.3 
395 1 -45.51 -84.5068 -8.5 
403 1 -44.28 -83.7966 -18.7 
404 1 -44.28 -83.7966 -11.9 
406 1 -43.05 -84.5068 -15.3 
407 1 -43.05 -84.5068 -8.5 
409 1 -43.05 -83.0865 -18.7 
410 1 -43.05 -83.0865 -11.9 
412 1 -43.05 -83.0865 -15.3 
413 1 -43.05 -83.0865 -8.5 
415 1 -43.05 -81.6662 -18.7 
416 1 -43.05 -81.6662 -11.9 
418 1 -46.74 -82.3763 -15.3 
419 1 -46.74 -82.3763 -8.5 
421 1 -45.51 -83.0865 -18.7 
422 1 -45.51 -83.0865 -11.9 
424 1 -45.51 -83.0865 -15.3 
425 1 -45.51 -83.0865 -8.5 
427 1 -45.51 -81.6662 -18.7 
428 1 -45.51 -81.6662 -11.9 
430 1 -44.28 -82.3763 -15.3 
431 1 -44.28 -82.3763 -8.5 
1969 1 -56.58 -80.9561 -18.7 
1970 1 -56.58 -80.9561 -11.9 
1972 1 -56.58 -80.9561 -15.3 
1973 1 -56.58 -80.9561 -8.5 
1975 1 -56.58 -79.5358 -18.7 
1976 1 -56.58 -79.5358 -11.9 
1978 1 -55.35 -80.2459 -15.3 
1979 1 -55.35 -80.2459 -8.5 
1981 1 -54.12 -80.9561 -18.7 
1982 1 -54.12 -80.9561 -11.9 
1984 1 -54.12 -80.9561 -15.3 
1985 1 -54.12 -80.9561 -8.5 
1987 1 -54.12 -79.5358 -18.7 
1988 1 -54.12 -79.5358 -11.9 
1990 1 -52.89 -80.2459 -15.3 
1991 1 -52.89 -80.2459 -8.5 
1993 1 -52.89 -78.8256 -18.7 
1994 1 -52.89 -78.8256 -11.9 
1996 1 -52.89 -78.8256 -15.3 
1997 1 -52.89 -78.8256 -8.5 
1999 1 -52.89 -77.4054 -18.7 
2000 1 -52.89 -77.4054 -11.9 
2002 1 -56.58 -78.1155 -15.3 
2003 1 -56.58 -78.1155 -8.5 
2005 1 -55.35 -78.8256 -18.7 
2006 1 -55.35 -78.8256 -11.9 
2008 1 -55.35 -78.8256 -15.3 
2009 1 -55.35 -78.8256 -8.5 
2011 1 -55.35 -77.4054 -18.7 
2012 1 -55.35 -77.4054 -11.9 
2014 1 -54.12 -78.1155 -15.3 
2015 1 -54.12 -78.1155 -8.5 
2017 1 -51.66 -80.9561 -18.7 
2018 1 -51.66 -80.9561 -11.9 
2020 1 -51.66 -80.9561 -15.3 
2021 1 -51.66 -80.9561 -8.5 
2023 1 -51.66 -79.5358 -18.7 
2024 1 -51.66 -79.5358 -11.9 
2026 1 -50.43 -80.2459 -15.3 
2027 1 -50.43 -80.2459 -8.5 
2029 1 -49.2 -80.9561 -18.7 
2030 1 -49.2 -80.9561 -11.9 
2032 1 -49.2 -80.9561 -15.3 
2033 1 -49.2 -80.9561 -8.5 
2035 1 -49.2 -79.5358 -18.7 
2036 1 -49.2 -79.5358 -11.9 
2038 1 -47.97 -80.2459 -15.3 
2039 1 -47.97 -80.2459 -8.5 
2041 1 -47.97 -78.8256 -18.7 
2042 1 -47.97 -78.8256 -11.9 
2044 1 -47.97 -78.8256 -15.3 
2045 1 -47.97 -78.8256 -8.5 
2047 1 -47.97 -77.4054 -18.7 
2048 1 -47.97 -77.4054 -11.9 
2050 1 -51.66 -78.1155 -15.3 
2051 1 -51.66 -78.1155 -8.5 
2053 1 -50.43 -78.8256 -18.7 
2054 1 -50.43 -78.8256 -11.9 
2056 1 -50.43 -78.8256 -15.3 
2057 1 -50.43 -78.8256 -8.5 
2059 1 -50.43 -77.4054 -18.7 
2060 1 -50.43 -77.4054 -11.9 
2062 1 -49.2 -78.1155 -15.3 
2063 1 -49.2 -78.1155 -8.5 
2065 1 -46.74 -80.9561 -18.7 
2066 1 -46.74 -80.9561 -11.9 
2068 1 -46.74 -80.9561 -15.3 
2069 1 -46.74 -80.9561 -8.5 
2071 1 -46.74 -79.5358 -18.7 
2072 1 -46.74 -79.5358 -11.9 
2074 1 -45.51 -80.2459 -15.3 
2075 1 -45.51 -80.2459 -8.5 
2077 1 -44.28 -80.9561 -18.7 
2078 1 -44.28 -80.9561 -11.9 
2080 1 -44.28 -80.9561 -15.3 
2081 1 -44.28 -80.9561 -8.5 
2083 1 -44.28 -79.5358 -18.7 
2084 1 -44.28 -79.5358 -11.9 
2086 1 -43.05 -80.2459 -15.3 
2087 1 -43.05 -80.2459 -8.5 
2089 1 -43.05 -78.8256 -18.7 
2090 1 -43.05 -78.8256 -11.9 
2092 1 -43.05 -78.8256 -15.3 
2093 1 -43.05 -78.8256 -8.5 
2095 1 -43.05 -77.4054 -18.7 
2096 1 -43.05 -77.4054 -11.9 
2098 1 -46.74 -78.1155 -15.3 
2099 1 -46.74 -78.1155 -8.5 
2101 1 -45.51 -78.8256 -18.7 
2102 1 -45.51 -78.8256 -11.9 
2104 1 -45.51 -78.8256 -15.3 
2105 1 -45.51 -78.8256 -8.5 
2107 1 -45.51 -77.4054 -18.7 
2108 1 -45.51 -77.4054 -11.9 
2110 1 -44.28 -78.1155 -15.3 
2111 1 -44.28 -78.1155 -8.5 
3649 1 -56.58 -76.6952 -18.7 
3650 1 -56.58 -76.6952 -11.9 
3652 1 -56.58 -76.6952 -15.3 
3653 1 -56.58 -76.6952 -8.5 
3655 1 -56.58 -75.2749 -18.7 
3656 1 -56.58 -75.2749 -11.9 
3658 1 -55.35 -75.9851 -15.3 
3659 1 -55.35 -75.9851 -8.5 
3661 1 -54.12 -76.6952 -18.7 
3662 1 -54.12 -76.6952 -11.9 
3664 1 -54.12 -76.6952 -15.3 
3665 1 -54.12 -76.6952 -8.5 
3667 1 -54.12 -75.2749 -18.7 
3668 1 -54.12 -75.2749 -11.9 
3670 1 -52.89 -75.9851 -15.3 
3671 1 -52.89 -75.9851 -8.5 
3673 1 -52.89 -74.5648 -18.7 
3674 1 -52.89 -74.5648 -11.9 
3676 1 -52.89 -74.5648 -15.3 
3677 1 -52.89 -74.5648 -8.5 
3682 1 -56.58 -73.8547 -15.3 
3683 1 -56.58 -73.8547 -8.5 
3685 1 -55.35 -74.5648 -18.7 
3686 1 -55.35 -74.5648 -11.9 
3688 1 -55.35 -74.5648 -15.3 
3689 1 -55.35 -74.5648 -8.5 
3694 1 -54.12 -73.8547 -15.3 
3695 1 -54.12 -73.8547 -8.5 
3697 1 -51.66 -76.6952 -18.7 
3698 1 -51.66 -76.6952 -11.9 
3700 1 -51.66 -76.6952 -15.3 
3701 1 -51.66 -76.6952 -8.5 
3703 1 -51.66 -75.2749 -18.7 
3704 1 -51.66 -75.2749 -11.9 
3706 1 -50.43 -75.9851 -15.3 
3707 1 -50.43 -75.9851 -8.5 
3709 1 -49.2 -76.6952 -18.7 
3710 1 -49.2 -76.6952 -11.9 
3712 1 -49.2 -76.6952 -15.3 
3713 1 -49.2 -76.6952 -8.5 
3715 1 -49.2 -75.2749 -18.7 
3716 1 -49.2 -75.2749 -11.9 
3718 1 -47.97 -75.9851 -15.3 
3719 1 -47.97 -75.9851 -8.5 
3721 1 -47.97 -74.5648 -18.7 
3722 1 -47.97 -74.5648 -11.9 
3724 1 -47.97 -74.5648 -15.3 
3725 1 -47.97 -74.5648 -8.5 
3730 1 -51.66 -73.8547 -15.3 
3731 1 -51.66 -73.8547 -8.5 
3733 1 -50.43 -74.5648 -18.7 
3734 1 -50.43 -74.5648 -11.9 
3736 1 -50.43 -74.5648 -15.3 
3737 1 -50.43 -74.5648 -8.5 
3742 1 -49.2 -73.8547 -15.3 
3743 1 -49.2 -73.8547 -8.5 
3745 1 -46.74 -76.6952 -18.7 
3746 1 -46.74 -76.6952 -11.9 
3748 1 -46.74 -76.6952 -15.3 
3749 1 -46.74 -76.6952 -8.5 
3751 1 -46.74 -75.2749 -18.7 
3752 1 -46.74 -75.2749 -11.9 
3754 1 -45.51 -75.9851 -15.3 
3755 1 -45.51 -75.9851 -8.5 
3757 1 -44.28 -76.6952 -18.7 
3758 1 -44.28 -76.6952 -11.9 
3760 1 -44.28 -76.6952 -15.3 
3761 1 -44.28 -76.6952 -8.5 
3763 1 -44.28 -75.2749 -18.7 
3764 1 -44.28 -75.2749 -11.9 
3766 1 -43.05 -75.9851 -15.3 
3767 1 -43.05 -75.9851 -8.5 
3769 1 -43.05 -74.5648 -18.7 
3770 1 -43.05 -74.5648 -11.9 
3772 1 -43.05 -74.5648 -15.3 
3773 1 -43.05 -74.5648 -8.5 
3778 1 -46.74 -73.8547 -15.3 
3779 1 -46.74 -73.8547 -8.5 
3781 1 -45.51 -74.5648 -18.7 
3782 1 -45.51 -74.5648 -11.9 
3784 1 -45.51 -74.5648 -15.3 
3785 1 -45.51 -74.5648 -8.5 
3790 1 -44.28 -73.8547 -15.3 
3791 1 -44.28 -73.8547 -8.5 
3391 1 -82.41 -73.1445 -18.7 
3392 1 -82.41 -73.1445 -11.9 
3403 1 -84.87 -73.1445 -18.7 
3404 1 -84.87 -73.1445 -11.9 
3439 1 -77.49 -73.1445 -18.7 
3440 1 -77.49 -73.1445 -11.9 
3451 1 -79.95 -73.1445 -18.7 
3452 1 -79.95 -73.1445 -11.9 
3487 1 -72.57 -73.1445 -18.7 
3488 1 -72.57 -73.1445 -11.9 
3499 1 -75.03 -73.1445 -18.7 
3500 1 -75.03 -73.1445 -11.9 
5050 1 -84.87 -71.7242 -15.3 
5051 1 -84.87 -71.7242 -8.5 
5053 1 -83.64 -72.4344 -18.7 
5054 1 -83.64 -72.4344 -11.9 
5056 1 -83.64 -72.4344 -15.3 
5057 1 -83.64 -72.4344 -8.5 
5059 1 -83.64 -71.0141 -18.7 
5060 1 -83.64 -71.0141 -11.9 
5062 1 -82.41 -71.7242 -15.3 
5063 1 -82.41 -71.7242 -8.5 
5065 1 -82.41 -70.3039 -18.7 
5066 1 -82.41 -70.3039 -11.9 
5068 1 -82.41 -70.3039 -15.3 
5069 1 -82.41 -70.3039 -8.5 
5071 1 -82.41 -68.8837 -18.7 
5072 1 -82.41 -68.8837 -11.9 
5077 1 -84.87 -70.3039 -18.7 
5078 1 -84.87 -70.3039 -11.9 
5080 1 -84.87 -70.3039 -15.3 
5081 1 -84.87 -70.3039 -8.5 
5083 1 -84.87 -68.8837 -18.7 
5084 1 -84.87 -68.8837 -11.9 
5086 1 -83.64 -69.5938 -15.3 
5087 1 -83.64 -69.5938 -8.5 
5089 1 -81.18 -72.4344 -18.7 
5090 1 -81.18 -72.4344 -11.9 
5092 1 -81.18 -72.4344 -15.3 
5093 1 -81.18 -72.4344 -8.5 
5095 1 -81.18 -71.0141 -18.7 
5096 1 -81.18 -71.0141 -11.9 
5098 1 -79.95 -71.7242 -15.3 
5099 1 -79.95 -71.7242 -8.5 
5101 1 -78.72 -72.4344 -18.7 
5102 1 -78.72 -72.4344 -11.9 
5104 1 -78.72 -72.4344 -15.3 
5105 1 -78.72 -72.4344 -8.5 
5107 1 -78.72 -71.0141 -18.7 
5108 1 -78.72 -71.0141 -11.9 
5110 1 -77.49 -71.7242 -15.3 
5111 1 -77.49 -71.7242 -8.5 
5113 1 -77.49 -70.3039 -18.7 
5114 1 -77.49 -70.3039 -11.9 
5116 1 -77.49 -70.3039 -15.3 
5117 1 -77.49 -70.3039 -8.5 
5119 1 -77.49 -68.8837 -18.7 
5120 1 -77.49 -68.8837 -11.9 
5122 1 -81.18 -69.5938 -15.3 
5123 1 -81.18 -69.5938 -8.5 
5125 1 -79.95 -70.3039 -18.7 
5126 1 -79.95 -70.3039 -11.9 
5128 1 -79.95 -70.3039 -15.3 
5129 1 -79.95 -70.3039 -8.5 
5131 1 -79.95 -68.8837 -18.7 
5132 1 -79.95 -68.8837 -11.9 
5134 1 -78.72 -69.5938 -15.3 
5135 1 -78.72 -69.5938 -8.5 
5137 1 -76.26 -72.4344 -18.7 
5138 1 -76.26 -72.4344 -11.9 
5140 1 -76.26 -72.4344 -15.3 
5141 1 -76.26 -72.4344 -8.5 
5143 1 -76.26 -71.0141 -18.7 
5144 1 -76.26 -71.0141 -11.9 
5146 1 -75.03 -71.7242 -15.3 
5147 1 -75.03 -71.7242 -8.5 
5149 1 -73.8 -72.4344 -18.7 
5150 1 -73.8 -72.4344 -11.9 
5152 1 -73.8 -72.4344 -15.3 
5153 1 -73.8 -72.4344 -8.5 
5155 1 -73.8 -71.0141 -18.7 
5156 1 -73.8 -71.0141 -11.9 
5158 1 -72.57 -71.7242 -15.3 
5159 1 -72.57 -71.7242 -8.5 
5161 1 -72.57 -70.3039 -18.7 
5162 1 -72.57 -70.3039 -11.9 
5164 1 -72.57 -70.3039 -15.3 
5165 1 -72.57 -70.3039 -8.5 
5167 1 -72.57 -68.8837 -18.7 
5168 1 -72.57 -68.8837 -11.9 
5170 1 -76.26 -69.5938 -15.3 
5171 1 -76.26 -69.5938 -8.5 
5173 1 -75.03 -70.3039 -18.7 
5174 1 -75.03 -70.3039 -11.9 
5176 1 -75.03 -70.3039 -15.3 
5177 1 -75.03 -70.3039 -8.5 
5179 1 -75.03 -68.8837 -18.7 
5180 1 -75.03 -68.8837 -11.9 
5182 1 -73.8 -69.5938 -15.3 
5183 1 -73.8 -69.5938 -8.5 
6730 1 -84.87 -67.4634 -15.3 
6731 1 -84.87 -67.4634 -8.5 
6733 1 -83.64 -68.1735 -18.7 
6734 1 -83.64 -68.1735 -11.9 
6736 1 -83.64 -68.1735 -15.3 
6737 1 -83.64 -68.1735 -8.5 
6739 1 -83.64 -66.7532 -18.7 
6740 1 -83.64 -66.7532 -11.9 
6742 1 -82.41 -67.4634 -15.3 
6743 1 -82.41 -67.4634 -8.5 
6745 1 -82.41 -66.0431 -18.7 
6746 1 -82.41 -66.0431 -11.9 
6748 1 -82.41 -66.0431 -15.3 
6749 1 -82.41 -66.0431 -8.5 
6751 1 -82.41 -64.6228 -18.7 
6752 1 -82.41 -64.6228 -11.9 
6757 1 -84.87 -66.0431 -18.7 
6758 1 -84.87 -66.0431 -11.9 
6760 1 -84.87 -66.0431 -15.3 
6761 1 -84.87 -66.0431 -8.5 
6763 1 -84.87 -64.6228 -18.7 
6764 1 -84.87 -64.6228 -11.9 
6766 1 -83.64 -65.333 -15.3 
6767 1 -83.64 -65.333 -8.5 
6769 1 -81.18 -68.1735 -18.7 
6770 1 -81.18 -68.1735 -11.9 
6772 1 -81.18 -68.1735 -15.3 
6773 1 -81.18 -68.1735 -8.5 
6775 1 -81.18 -66.7532 -18.7 
6776 1 -81.18 -66.7532 -11.9 
6778 1 -79.95 -67.4634 -15.3 
6779 1 -79.95 -67.4634 -8.5 
6781 1 -78.72 -68.1735 -18.7 
6782 1 -78.72 -68.1735 -11.9 
6784 1 -78.72 -68.1735 -15.3 
6785 1 -78.72 -68.1735 -8.5 
6787 1 -78.72 -66.7532 -18.7 
6788 1 -78.72 -66.7532 -11.9 
6790 1 -77.49 -67.4634 -15.3 
6791 1 -77.49 -67.4634 -8.5 
6793 1 -77.49 -66.0431 -18.7 
6794 1 -77.49 -66.0431 -11.9 
6796 1 -77.49 -66.0431 -15.3 
6797 1 -77.49 -66.0431 -8.5 
6799 1 -77.49 -64.6228 -18.7 
6800 1 -77.49 -64.6228 -11.9 
6802 1 -81.18 -65.333 -15.3 
6803 1 -81.18 -65.333 -8.5 
6805 1 -79.95 -66.0431 -18.7 
6806 1 -79.95 -66.0431 -11.9 
6808 1 -79.95 -66.0431 -15.3 
6809 1 -79.95 -66.0431 -8.5 
6811 1 -79.95 -64.6228 -18.7 
6812 1 -79.95 -64.6228 -11.9 
6814 1 -78.72 -65.333 -15.3 
6815 1 -78.72 -65.333 -8.5 
6817 1 -76.26 -68.1735 -18.7 
6818 1 -76.26 -68.1735 -11.9 
6820 1 -76.26 -68.1735 -15.3 
6821 1 -76.26 -68.1735 -8.5 
6823 1 -76.26 -66.7532 -18.7 
6824 1 -76.26 -66.7532 -11.9 
6826 1 -75.03 -67.4634 -15.3 
6827 1 -75.03 -67.4634 -8.5 
6829 1 -73.8 -68.1735 -18.7 
6830 1 -73.8 -68.1735 -11.9 
6832 1 -73.8 -68.1735 -15.3 
6833 1 -73.8 -68.1735 -8.5 
6835 1 -73.8 -66.7532 -18.7 
6836 1 -73.8 -66.7532 -11.9 
6838 1 -72.57 -67.4634 -15.3 
6839 1 -72.57 -67.4634 -8.5 
6841 1 -72.57 -66.0431 -18.7 
6842 1 -72.57 -66.0431 -11.9 
6844 1 -72.57 -66.0431 -15.3 
6845 1 -72.57 -66.0431 -8.5 
6847 1 -72.57 -64.6228 -18.7 
6848 1 -72.57 -64.6228 -11.9 
6850 1 -76.26 -65.333 -15.3 
6851 1 -76.26 -65.333 -8.5 
6853 1 -75.03 -66.0431 -18.7 
6854 1 -75.03 -66.0431 -11.9 
6856 1 -75.03 -66.0431 -15.3 
6857 1 -75.03 -66.0431 -8.5 
6859 1 -75.03 -64.6228 -18.7 
6860 1 -75.03 -64.6228 -11.9 
6862 1 -73.8 -65.333 -15.3 
6863 1 -73.8 -65.333 -8.5 
8410 1 -84.87 -63.2025 -15.3 
8411 1 -84.87 -63.2025 -8.5 
8413 1 -83.64 -63.9127 -18.7 
8414 1 -83.64 -63.9127 -11.9 
8416 1 -83.64 -63.9127 -15.3 
8417 1 -83.64 -63.9127 -8.5 
8419 1 -83.64 -62.4924 -18.7 
8420 1 -83.64 -62.4924 -11.9 
8422 1 -82.41 -63.2025 -15.3 
8423 1 -82.41 -63.2025 -8.5 
8449 1 -81.18 -63.9127 -18.7 
8450 1 -81.18 -63.9127 -11.9 
8452 1 -81.18 -63.9127 -15.3 
8453 1 -81.18 -63.9127 -8.5 
8455 1 -81.18 -62.4924 -18.7 
8456 1 -81.18 -62.4924 -11.9 
8458 1 -79.95 -63.2025 -15.3 
8459 1 -79.95 -63.2025 -8.5 
8461 1 -78.72 -63.9127 -18.7 
8462 1 -78.72 -63.9127 -11.9 
8464 1 -78.72 -63.9127 -15.3 
8465 1 -78.72 -63.9127 -8.5 
8467 1 -78.72 -62.4924 -18.7 
8468 1 -78.72 -62.4924 -11.9 
8470 1 -77.49 -63.2025 -15.3 
8471 1 -77.49 -63.2025 -8.5 
8497 1 -76.26 -63.9127 -18.7 
8498 1 -76.26 -63.9127 -11.9 
8500 1 -76.26 -63.9127 -15.3 
8501 1 -76.26 -63.9127 -8.5 
8503 1 -76.26 -62.4924 -18.7 
8504 1 -76.26 -62.4924 -11.9 
8506 1 -75.03 -63.2025 -15.3 
8507 1 -75.03 -63.2025 -8.5 
8509 1 -73.8 -63.9127 -18.7 
8510 1 -73.8 -63.9127 -11.9 
8512 1 -73.8 -63.9127 -15.3 
8513 1 -73.8 -63.9127 -8.5 
8515 1 -73.8 -62.4924 -18.7 
8516 1 -73.8 -62.4924 -11.9 
8518 1 -72.57 -63.2025 -15.3 
8519 1 -72.57 -63.2025 -8.5 
3535 1 -67.65 -73.1445 -18.7 
3536 1 -67.65 -73.1445 -11.9 
3547 1 -70.11 -73.1445 -18.7 
3548 1 -70.11 -73.1445 -11.9 
3583 1 -62.73 -73.1445 -18.7 
3584 1 -62.73 -73.1445 -11.9 
3595 1 -65.19 -73.1445 -18.7 
3596 1 -65.19 -73.1445 -11.9 
3631 1 -57.81 -73.1445 -18.7 
3632 1 -57.81 -73.1445 -11.9 
3643 1 -60.27 -73.1445 -18.7 
3644 1 -60.27 -73.1445 -11.9 
5185 1 -71.34 -72.4344 -18.7 
5186 1 -71.34 -72.4344 -11.9 
5188 1 -71.34 -72.4344 -15.3 
5189 1 -71.34 -72.4344 -8.5 
5191 1 -71.34 -71.0141 -18.7 
5192 1 -71.34 -71.0141 -11.9 
5194 1 -70.11 -71.7242 -15.3 
5195 1 -70.11 -71.7242 -8.5 
5197 1 -68.88 -72.4344 -18.7 
5198 1 -68.88 -72.4344 -11.9 
5200 1 -68.88 -72.4344 -15.3 
5201 1 -68.88 -72.4344 -8.5 
5203 1 -68.88 -71.0141 -18.7 
5204 1 -68.88 -71.0141 -11.9 
5206 1 -67.65 -71.7242 -15.3 
5207 1 -67.65 -71.7242 -8.5 
5209 1 -67.65 -70.3039 -18.7 
5210 1 -67.65 -70.3039 -11.9 
5212 1 -67.65 -70.3039 -15.3 
5213 1 -67.65 -70.3039 -8.5 
5215 1 -67.65 -68.8837 -18.7 
5216 1 -67.65 -68.8837 -11.9 
5218 1 -71.34 -69.5938 -15.3 
5219 1 -71.34 -69.5938 -8.5 
5221 1 -70.11 -70.3039 -18.7 
5222 1 -70.11 -70.3039 -11.9 
5224 1 -70.11 -70.3039 -15.3 
5225 1 -70.11 -70.3039 -8.5 
5227 1 -70.11 -68.8837 -18.7 
5228 1 -70.11 -68.8837 -11.9 
5230 1 -68.88 -69.5938 -15.3 
5231 1 -68.88 -69.5938 -8.5 
5233 1 -66.42 -72.4344 -18.7 
5234 1 -66.42 -72.4344 -11.9 
5236 1 -66.42 -72.4344 -15.3 
5237 1 -66.42 -72.4344 -8.5 
5239 1 -66.42 -71.0141 -18.7 